# vtk DataFile Version 4.2
Unstructured Grid Data
ASCII
DATASET UNSTRUCTURED_GRID
POINTS 24 double
0.00000000 0.00000000 1.00000000
0.00000000 0.00000000 0.80000000
0.00000000 0.00000000 0.60000000
0.00000000 0.00000000 0.40000000
0.00000000 0.00000000 0.20000000
0.00000000 0.00000000 0.00000000
1.00000000 0.00000000 1.00000000
1.00000000 0.00000000 0.80000000
1.00000000 0.00000000 0.60000000
1.00000000 0.00000000 0.40000000
1.00000000 0.00000000 0.20000000
1.00000000 0.00000000 0.00000000
1.00000000 1.00000000 0.20000000
1.00000000 1.00000000 0.40000000
1.00000000 1.00000000 0.60000000
1.00000000 1.00000000 0.80000000
1.00000000 1.00000000 0.00000000
1.00000000 1.00000000 1.00000000
0.00000000 1.00000000 0.20000000
0.00000000 1.00000000 0.40000000
0.00000000 1.00000000 0.60000000
0.00000000 1.00000000 0.80000000
0.00000000 1.00000000 0.00000000
0.00000000 1.00000000 1.00000000

CELLS 5 45
8 1 7 15 21 0 6 17 23
8 2 8 14 20 1 7 15 21
8 3 9 13 19 2 8 14 20
8 4 10 12 18 3 9 13 19
8 5 11 16 22 4 10 12 18
CELL_TYPES 5
12
12
12
12
12
CELL_DATA 5
SCALARS U_x double 1
LOOKUP_TABLE default
0.10000000
0.10000000
0.10000000
0.10000000
0.10000000

SCALARS U_y double 1
LOOKUP_TABLE default
0.00000000
0.00000000
0.00000000
0.00000000
0.00000000

SCALARS U_z double 1
LOOKUP_TABLE default
0.00000000
0.00000000
0.00000000
0.00000000
0.00000000

SCALARS pressure double 1
LOOKUP_TABLE default
0.00000000
0.00000000
0.00000000
0.00000000
0.00000000

SCALARS pressureCoeff double 1
LOOKUP_TABLE default
0.00000000
0.00000000
0.00000000
0.00000000
0.00000000

SCALARS velocityMagnitude double 1
LOOKUP_TABLE default
0.10000000
0.10000000
0.10000000
0.10000000
0.10000000

