# vtk DataFile Version 4.2
Unstructured Grid Data
ASCII
DATASET UNSTRUCTURED_GRID
POINTS 29 float
0.15003860 -0.00000139 -0.00000249
0.35001081 -0.00001269 -0.00000485
0.43253818 0.01731913 -0.01701235
0.24997649 -0.00001204 0.00000867
0.05192232 0.00105183 0.00328190
0.50000000 0.05000000 0.05000000
0.50000000 0.05000000 -0.05000000
0.00000000 0.05000000 -0.05000000
0.10000000 0.05000000 -0.05000000
0.20000000 0.05000000 -0.05000000
0.30000001 0.05000000 -0.05000000
0.40000001 0.05000000 -0.05000000
0.00000000 0.05000000 0.05000000
0.10000000 0.05000000 0.05000000
0.20000000 0.05000000 0.05000000
0.30000001 0.05000000 0.05000000
0.40000001 0.05000000 0.05000000
0.50000000 -0.05000000 -0.05000000
0.00000000 -0.05000000 -0.05000000
0.10000000 -0.05000000 -0.05000000
0.20000000 -0.05000000 -0.05000000
0.30000001 -0.05000000 -0.05000000
0.40000001 -0.05000000 -0.05000000
0.50000000 -0.05000000 0.05000000
0.00000000 -0.05000000 0.05000000
0.10000000 -0.05000000 0.05000000
0.20000000 -0.05000000 0.05000000
0.30000001 -0.05000000 0.05000000
0.40000001 -0.05000000 0.05000000

CELLS 60 300
4 14 0 9 26
4 1 16 28 11
4 2 5 16 17
4 22 2 11 28
4 22 2 28 17
4 3 9 14 15
4 2 16 28 17
4 22 11 2 6
4 25 26 0 13
4 3 27 21 10
4 27 26 3 21
4 10 9 3 15
4 3 15 27 10
4 16 11 2 28
4 3 26 14 9
4 28 16 23 17
4 23 16 5 17
4 13 4 25 12
4 14 0 26 13
4 4 13 25 8
4 4 24 25 12
4 3 20 26 9
4 1 27 28 15
4 16 1 28 15
4 22 2 17 6
4 15 1 27 10
4 28 1 22 27
4 1 28 22 11
4 21 10 1 11
4 1 21 27 10
4 1 21 22 27
4 22 21 1 11
4 0 13 8 25
4 20 9 0 26
4 26 0 20 25
4 0 8 19 25
4 0 8 9 19
4 0 19 20 25
4 20 0 9 19
4 20 9 3 10
4 26 20 3 21
4 21 20 3 10
4 6 5 2 17
4 15 14 3 27
4 3 14 26 27
4 14 9 0 8
4 14 0 13 8
4 16 11 1 10
4 16 1 15 10
4 11 2 6 5
4 16 2 11 5
4 13 4 12 7
4 25 24 4 19
4 24 18 4 19
4 13 8 4 7
4 8 4 7 18
4 19 4 8 18
4 4 25 19 8
4 24 12 4 18
4 4 12 7 18
CELL_TYPES 60
10
10
10
10
10
10
10
10
10
10
10
10
10
10
10
10
10
10
10
10
10
10
10
10
10
10
10
10
10
10
10
10
10
10
10
10
10
10
10
10
10
10
10
10
10
10
10
10
10
10
10
10
10
10
10
10
10
10
10
10
CELL_DATA 60
SCALARS Temperature float 1
LOOKUP_TABLE default
250.94763184
414.56738281
474.72265625
430.27340698
450.81488037
297.39303589
455.18527222
456.25115967
216.13322449
332.19027710
308.98593140
309.00753784
332.24414062
435.09313965
274.15649414
464.81024170
479.12664795
146.61575317
227.73554993
170.32389832
134.77209473
274.14843750
378.70367432
390.75747681
463.48532104
355.52075195
389.83624268
412.46334839
378.64505005
355.38131714
378.34338379
389.81713867
192.96961975
250.93441772
227.70329285
192.78297424
216.05322266
216.05119324
227.67684937
297.38287354
297.37466431
308.98449707
482.74407959
309.00900269
297.38476562
227.70904541
216.13525391
390.73825073
379.00527954
470.86572266
465.15481567
134.71604919
146.43960571
134.94284058
146.38714600
134.86869812
146.26716614
169.85194397
112.00664520
112.11225891

