# vtk DataFile Version 4.2
Unstructured Grid Data
ASCII
DATASET UNSTRUCTURED_GRID
POINTS 216 float
0.08000000 0.02000000 0.02000000
0.08000000 0.04000000 0.02000000
0.08000000 0.06000000 0.02000000
0.08000000 0.08000000 0.02000000
0.08000000 0.02000000 0.04000000
0.08000000 0.04000000 0.04000000
0.08000000 0.06000000 0.04000000
0.08000000 0.08000000 0.04000000
0.08000000 0.02000000 0.06000000
0.08000000 0.04000000 0.06000000
0.08000000 0.06000000 0.06000000
0.08000000 0.08000000 0.06000000
0.08000000 0.02000000 0.08000000
0.08000000 0.04000000 0.08000000
0.08000000 0.06000000 0.08000000
0.08000000 0.08000000 0.08000000
0.06000000 0.02000000 0.02000000
0.06000000 0.04000000 0.02000000
0.06000000 0.06000000 0.02000000
0.06000000 0.08000000 0.02000000
0.06000000 0.02000000 0.04000000
0.06000000 0.04000000 0.04000000
0.06000000 0.06000000 0.04000000
0.06000000 0.08000000 0.04000000
0.06000000 0.02000000 0.06000000
0.06000000 0.04000000 0.06000000
0.06000000 0.06000000 0.06000000
0.06000000 0.08000000 0.06000000
0.06000000 0.02000000 0.08000000
0.06000000 0.04000000 0.08000000
0.06000000 0.06000000 0.08000000
0.06000000 0.08000000 0.08000000
0.04000000 0.02000000 0.02000000
0.04000000 0.04000000 0.02000000
0.04000000 0.06000000 0.02000000
0.04000000 0.08000000 0.02000000
0.04000000 0.02000000 0.04000000
0.04000000 0.04000000 0.04000000
0.04000000 0.06000000 0.04000000
0.04000000 0.08000000 0.04000000
0.04000000 0.02000000 0.06000000
0.04000000 0.04000000 0.06000000
0.04000000 0.06000000 0.06000000
0.04000000 0.08000000 0.06000000
0.04000000 0.02000000 0.08000000
0.04000000 0.04000000 0.08000000
0.04000000 0.06000000 0.08000000
0.04000000 0.08000000 0.08000000
0.02000000 0.02000000 0.02000000
0.02000000 0.04000000 0.02000000
0.02000000 0.06000000 0.02000000
0.02000000 0.08000000 0.02000000
0.02000000 0.02000000 0.04000000
0.02000000 0.04000000 0.04000000
0.02000000 0.06000000 0.04000000
0.02000000 0.08000000 0.04000000
0.02000000 0.02000000 0.06000000
0.02000000 0.04000000 0.06000000
0.02000000 0.06000000 0.06000000
0.02000000 0.08000000 0.06000000
0.02000000 0.02000000 0.08000000
0.02000000 0.04000000 0.08000000
0.02000000 0.06000000 0.08000000
0.02000000 0.08000000 0.08000000
0.02000000 0.00000000 0.08000000
0.02000000 0.00000000 0.06000000
0.02000000 0.00000000 0.04000000
0.02000000 0.00000000 0.02000000
0.04000000 0.00000000 0.08000000
0.04000000 0.00000000 0.06000000
0.04000000 0.00000000 0.04000000
0.04000000 0.00000000 0.02000000
0.06000000 0.00000000 0.08000000
0.06000000 0.00000000 0.06000000
0.06000000 0.00000000 0.04000000
0.06000000 0.00000000 0.02000000
0.08000000 0.00000000 0.08000000
0.08000000 0.00000000 0.06000000
0.08000000 0.00000000 0.04000000
0.08000000 0.00000000 0.02000000
0.08000000 0.10000000 0.02000000
0.08000000 0.10000000 0.04000000
0.08000000 0.10000000 0.06000000
0.08000000 0.10000000 0.08000000
0.06000000 0.10000000 0.02000000
0.06000000 0.10000000 0.04000000
0.06000000 0.10000000 0.06000000
0.06000000 0.10000000 0.08000000
0.04000000 0.10000000 0.02000000
0.04000000 0.10000000 0.04000000
0.04000000 0.10000000 0.06000000
0.04000000 0.10000000 0.08000000
0.02000000 0.10000000 0.02000000
0.02000000 0.10000000 0.04000000
0.02000000 0.10000000 0.06000000
0.02000000 0.10000000 0.08000000
0.10000000 0.10000000 0.08000000
0.10000000 0.10000000 0.06000000
0.10000000 0.10000000 0.04000000
0.10000000 0.10000000 0.02000000
0.10000000 0.10000000 0.00000000
0.08000000 0.10000000 0.00000000
0.06000000 0.10000000 0.00000000
0.04000000 0.10000000 0.00000000
0.02000000 0.10000000 0.00000000
0.00000000 0.10000000 0.00000000
0.00000000 0.10000000 0.02000000
0.00000000 0.10000000 0.04000000
0.00000000 0.10000000 0.06000000
0.00000000 0.10000000 0.08000000
0.00000000 0.10000000 0.10000000
0.02000000 0.10000000 0.10000000
0.04000000 0.10000000 0.10000000
0.06000000 0.10000000 0.10000000
0.08000000 0.10000000 0.10000000
0.10000000 0.10000000 0.10000000
0.02000000 0.02000000 0.10000000
0.02000000 0.04000000 0.10000000
0.02000000 0.06000000 0.10000000
0.02000000 0.08000000 0.10000000
0.04000000 0.02000000 0.10000000
0.04000000 0.04000000 0.10000000
0.04000000 0.06000000 0.10000000
0.04000000 0.08000000 0.10000000
0.06000000 0.02000000 0.10000000
0.06000000 0.04000000 0.10000000
0.06000000 0.06000000 0.10000000
0.06000000 0.08000000 0.10000000
0.08000000 0.02000000 0.10000000
0.08000000 0.04000000 0.10000000
0.08000000 0.06000000 0.10000000
0.08000000 0.08000000 0.10000000
0.02000000 0.00000000 0.10000000
0.04000000 0.00000000 0.10000000
0.06000000 0.00000000 0.10000000
0.08000000 0.00000000 0.10000000
0.10000000 0.08000000 0.10000000
0.10000000 0.06000000 0.10000000
0.10000000 0.04000000 0.10000000
0.10000000 0.02000000 0.10000000
0.10000000 0.00000000 0.10000000
0.00000000 0.08000000 0.10000000
0.00000000 0.06000000 0.10000000
0.00000000 0.04000000 0.10000000
0.00000000 0.02000000 0.10000000
0.00000000 0.00000000 0.10000000
0.00000000 0.08000000 0.02000000
0.00000000 0.08000000 0.04000000
0.00000000 0.08000000 0.06000000
0.00000000 0.08000000 0.08000000
0.00000000 0.06000000 0.02000000
0.00000000 0.06000000 0.04000000
0.00000000 0.06000000 0.06000000
0.00000000 0.06000000 0.08000000
0.00000000 0.04000000 0.02000000
0.00000000 0.04000000 0.04000000
0.00000000 0.04000000 0.06000000
0.00000000 0.04000000 0.08000000
0.00000000 0.02000000 0.02000000
0.00000000 0.02000000 0.04000000
0.00000000 0.02000000 0.06000000
0.00000000 0.02000000 0.08000000
0.00000000 0.00000000 0.02000000
0.00000000 0.00000000 0.04000000
0.00000000 0.00000000 0.06000000
0.00000000 0.00000000 0.08000000
0.00000000 0.08000000 0.00000000
0.00000000 0.06000000 0.00000000
0.00000000 0.04000000 0.00000000
0.00000000 0.02000000 0.00000000
0.00000000 0.00000000 0.00000000
0.08000000 0.08000000 0.00000000
0.06000000 0.08000000 0.00000000
0.04000000 0.08000000 0.00000000
0.02000000 0.08000000 0.00000000
0.08000000 0.06000000 0.00000000
0.06000000 0.06000000 0.00000000
0.04000000 0.06000000 0.00000000
0.02000000 0.06000000 0.00000000
0.08000000 0.04000000 0.00000000
0.06000000 0.04000000 0.00000000
0.04000000 0.04000000 0.00000000
0.02000000 0.04000000 0.00000000
0.08000000 0.02000000 0.00000000
0.06000000 0.02000000 0.00000000
0.04000000 0.02000000 0.00000000
0.02000000 0.02000000 0.00000000
0.08000000 0.00000000 0.00000000
0.06000000 0.00000000 0.00000000
0.04000000 0.00000000 0.00000000
0.02000000 0.00000000 0.00000000
0.10000000 0.08000000 0.00000000
0.10000000 0.06000000 0.00000000
0.10000000 0.04000000 0.00000000
0.10000000 0.02000000 0.00000000
0.10000000 0.00000000 0.00000000
0.10000000 0.02000000 0.02000000
0.10000000 0.02000000 0.04000000
0.10000000 0.02000000 0.06000000
0.10000000 0.02000000 0.08000000
0.10000000 0.04000000 0.02000000
0.10000000 0.04000000 0.04000000
0.10000000 0.04000000 0.06000000
0.10000000 0.04000000 0.08000000
0.10000000 0.06000000 0.02000000
0.10000000 0.06000000 0.04000000
0.10000000 0.06000000 0.06000000
0.10000000 0.06000000 0.08000000
0.10000000 0.08000000 0.02000000
0.10000000 0.08000000 0.04000000
0.10000000 0.08000000 0.06000000
0.10000000 0.08000000 0.08000000
0.10000000 0.00000000 0.08000000
0.10000000 0.00000000 0.06000000
0.10000000 0.00000000 0.04000000
0.10000000 0.00000000 0.02000000

CELLS 125 1125
8 187 183 194 195 79 0 196 215
8 183 179 193 194 0 1 200 196
8 179 175 192 193 1 2 204 200
8 175 171 191 192 2 3 208 204
8 171 101 100 191 3 80 99 208
8 188 184 183 187 75 16 0 79
8 184 180 179 183 16 17 1 0
8 180 176 175 179 17 18 2 1
8 176 172 171 175 18 19 3 2
8 172 102 101 171 19 84 80 3
8 189 185 184 188 71 32 16 75
8 185 181 180 184 32 33 17 16
8 181 177 176 180 33 34 18 17
8 177 173 172 176 34 35 19 18
8 173 103 102 172 35 88 84 19
8 190 186 185 189 67 48 32 71
8 186 182 181 185 48 49 33 32
8 182 178 177 181 49 50 34 33
8 178 174 173 177 50 51 35 34
8 174 104 103 173 51 92 88 35
8 170 169 186 190 162 158 48 67
8 169 168 182 186 158 154 49 48
8 168 167 178 182 154 150 50 49
8 167 166 174 178 150 146 51 50
8 166 105 104 174 146 106 92 51
8 79 0 196 215 78 4 197 214
8 0 1 200 196 4 5 201 197
8 1 2 204 200 5 6 205 201
8 2 3 208 204 6 7 209 205
8 3 80 99 208 7 81 98 209
8 75 16 0 79 74 20 4 78
8 16 17 1 0 20 21 5 4
8 17 18 2 1 21 22 6 5
8 18 19 3 2 22 23 7 6
8 19 84 80 3 23 85 81 7
8 71 32 16 75 70 36 20 74
8 32 33 17 16 36 37 21 20
8 33 34 18 17 37 38 22 21
8 34 35 19 18 38 39 23 22
8 35 88 84 19 39 89 85 23
8 67 48 32 71 66 52 36 70
8 48 49 33 32 52 53 37 36
8 49 50 34 33 53 54 38 37
8 50 51 35 34 54 55 39 38
8 51 92 88 35 55 93 89 39
8 162 158 48 67 163 159 52 66
8 158 154 49 48 159 155 53 52
8 154 150 50 49 155 151 54 53
8 150 146 51 50 151 147 55 54
8 146 106 92 51 147 107 93 55
8 78 4 197 214 77 8 198 213
8 4 5 201 197 8 9 202 198
8 5 6 205 201 9 10 206 202
8 6 7 209 205 10 11 210 206
8 7 81 98 209 11 82 97 210
8 74 20 4 78 73 24 8 77
8 20 21 5 4 24 25 9 8
8 21 22 6 5 25 26 10 9
8 22 23 7 6 26 27 11 10
8 23 85 81 7 27 86 82 11
8 70 36 20 74 69 40 24 73
8 36 37 21 20 40 41 25 24
8 37 38 22 21 41 42 26 25
8 38 39 23 22 42 43 27 26
8 39 89 85 23 43 90 86 27
8 66 52 36 70 65 56 40 69
8 52 53 37 36 56 57 41 40
8 53 54 38 37 57 58 42 41
8 54 55 39 38 58 59 43 42
8 55 93 89 39 59 94 90 43
8 163 159 52 66 164 160 56 65
8 159 155 53 52 160 156 57 56
8 155 151 54 53 156 152 58 57
8 151 147 55 54 152 148 59 58
8 147 107 93 55 148 108 94 59
8 77 8 198 213 76 12 199 212
8 8 9 202 198 12 13 203 199
8 9 10 206 202 13 14 207 203
8 10 11 210 206 14 15 211 207
8 11 82 97 210 15 83 96 211
8 73 24 8 77 72 28 12 76
8 24 25 9 8 28 29 13 12
8 25 26 10 9 29 30 14 13
8 26 27 11 10 30 31 15 14
8 27 86 82 11 31 87 83 15
8 69 40 24 73 68 44 28 72
8 40 41 25 24 44 45 29 28
8 41 42 26 25 45 46 30 29
8 42 43 27 26 46 47 31 30
8 43 90 86 27 47 91 87 31
8 65 56 40 69 64 60 44 68
8 56 57 41 40 60 61 45 44
8 57 58 42 41 61 62 46 45
8 58 59 43 42 62 63 47 46
8 59 94 90 43 63 95 91 47
8 164 160 56 65 165 161 60 64
8 160 156 57 56 161 157 61 60
8 156 152 58 57 157 153 62 61
8 152 148 59 58 153 149 63 62
8 148 108 94 59 149 109 95 63
8 76 12 199 212 135 128 139 140
8 12 13 203 199 128 129 138 139
8 13 14 207 203 129 130 137 138
8 14 15 211 207 130 131 136 137
8 15 83 96 211 131 114 115 136
8 72 28 12 76 134 124 128 135
8 28 29 13 12 124 125 129 128
8 29 30 14 13 125 126 130 129
8 30 31 15 14 126 127 131 130
8 31 87 83 15 127 113 114 131
8 68 44 28 72 133 120 124 134
8 44 45 29 28 120 121 125 124
8 45 46 30 29 121 122 126 125
8 46 47 31 30 122 123 127 126
8 47 91 87 31 123 112 113 127
8 64 60 44 68 132 116 120 133
8 60 61 45 44 116 117 121 120
8 61 62 46 45 117 118 122 121
8 62 63 47 46 118 119 123 122
8 63 95 91 47 119 111 112 123
8 165 161 60 64 145 144 116 132
8 161 157 61 60 144 143 117 116
8 157 153 62 61 143 142 118 117
8 153 149 63 62 142 141 119 118
8 149 109 95 63 141 110 111 119
CELL_TYPES 125
12
12
12
12
12
12
12
12
12
12
12
12
12
12
12
12
12
12
12
12
12
12
12
12
12
12
12
12
12
12
12
12
12
12
12
12
12
12
12
12
12
12
12
12
12
12
12
12
12
12
12
12
12
12
12
12
12
12
12
12
12
12
12
12
12
12
12
12
12
12
12
12
12
12
12
12
12
12
12
12
12
12
12
12
12
12
12
12
12
12
12
12
12
12
12
12
12
12
12
12
12
12
12
12
12
12
12
12
12
12
12
12
12
12
12
12
12
12
12
12
12
12
12
12
12
CELL_DATA 125
SCALARS Temperature float 1
LOOKUP_TABLE default
140.00000000
140.00000000
139.99998474
139.99998474
139.99998474
139.99998474
139.99996948
139.99996948
139.99998474
139.99998474
139.99998474
139.99996948
139.99998474
139.99998474
140.00000000
139.99998474
139.99996948
139.99996948
139.99998474
139.99998474
140.00000000
139.99998474
139.99998474
139.99998474
140.00000000
219.99995422
219.99998474
220.00000000
220.00003052
220.00001526
219.99996948
219.99996948
220.00000000
220.00003052
220.00000000
219.99995422
219.99995422
219.99998474
220.00000000
220.00001526
219.99996948
219.99996948
219.99995422
219.99998474
219.99998474
220.00000000
219.99998474
219.99998474
220.00000000
220.00001526
299.99996948
299.99993896
299.99996948
300.00000000
300.00003052
300.00000000
300.00000000
300.00000000
300.00003052
300.00003052
299.99996948
299.99996948
300.00000000
300.00000000
299.99993896
300.00000000
299.99996948
300.00000000
300.00000000
299.99996948
299.99996948
299.99996948
300.00003052
300.00000000
300.00000000
379.99990845
380.00000000
380.00003052
380.00012207
380.00006104
379.99993896
379.99996948
379.99996948
380.00000000
380.00006104
379.99990845
379.99996948
379.99996948
380.00000000
380.00000000
379.99990845
379.99993896
379.99993896
379.99996948
380.00000000
379.99996948
379.99996948
379.99993896
379.99996948
379.99996948
460.00006104
460.00003052
460.00003052
460.00000000
460.00009155
460.00003052
460.00006104
460.00009155
460.00015259
460.00003052
460.00006104
460.00006104
460.00006104
460.00006104
459.99993896
460.00006104
460.00009155
460.00009155
460.00006104
459.99996948
460.00006104
460.00009155
460.00009155
460.00006104
460.00003052

