# vtk DataFile Version 4.2
Unstructured Grid Data
ASCII
DATASET UNSTRUCTURED_GRID
POINTS 936 double
0.04000000 0.16000000 0.96000000
0.04000000 0.12000000 0.96000000
0.04000000 0.08000000 0.96000000
0.04000000 0.04000000 0.96000000
0.08000000 0.16000000 0.96000000
0.08000000 0.12000000 0.96000000
0.08000000 0.08000000 0.96000000
0.08000000 0.04000000 0.96000000
0.12000000 0.16000000 0.96000000
0.12000000 0.12000000 0.96000000
0.12000000 0.08000000 0.96000000
0.12000000 0.04000000 0.96000000
0.16000000 0.16000000 0.96000000
0.16000000 0.12000000 0.96000000
0.16000000 0.08000000 0.96000000
0.16000000 0.04000000 0.96000000
0.04000000 0.16000000 0.92000000
0.04000000 0.12000000 0.92000000
0.04000000 0.08000000 0.92000000
0.04000000 0.04000000 0.92000000
0.08000000 0.16000000 0.92000000
0.08000000 0.12000000 0.92000000
0.08000000 0.08000000 0.92000000
0.08000000 0.04000000 0.92000000
0.12000000 0.16000000 0.92000000
0.12000000 0.12000000 0.92000000
0.12000000 0.08000000 0.92000000
0.12000000 0.04000000 0.92000000
0.16000000 0.16000000 0.92000000
0.16000000 0.12000000 0.92000000
0.16000000 0.08000000 0.92000000
0.16000000 0.04000000 0.92000000
0.04000000 0.16000000 0.88000000
0.04000000 0.12000000 0.88000000
0.04000000 0.08000000 0.88000000
0.04000000 0.04000000 0.88000000
0.08000000 0.16000000 0.88000000
0.08000000 0.12000000 0.88000000
0.08000000 0.08000000 0.88000000
0.08000000 0.04000000 0.88000000
0.12000000 0.16000000 0.88000000
0.12000000 0.12000000 0.88000000
0.12000000 0.08000000 0.88000000
0.12000000 0.04000000 0.88000000
0.16000000 0.16000000 0.88000000
0.16000000 0.12000000 0.88000000
0.16000000 0.08000000 0.88000000
0.16000000 0.04000000 0.88000000
0.04000000 0.16000000 0.84000000
0.04000000 0.12000000 0.84000000
0.04000000 0.08000000 0.84000000
0.04000000 0.04000000 0.84000000
0.08000000 0.16000000 0.84000000
0.08000000 0.12000000 0.84000000
0.08000000 0.08000000 0.84000000
0.08000000 0.04000000 0.84000000
0.12000000 0.16000000 0.84000000
0.12000000 0.12000000 0.84000000
0.12000000 0.08000000 0.84000000
0.12000000 0.04000000 0.84000000
0.16000000 0.16000000 0.84000000
0.16000000 0.12000000 0.84000000
0.16000000 0.08000000 0.84000000
0.16000000 0.04000000 0.84000000
0.04000000 0.16000000 0.80000000
0.04000000 0.12000000 0.80000000
0.04000000 0.08000000 0.80000000
0.04000000 0.04000000 0.80000000
0.08000000 0.16000000 0.80000000
0.08000000 0.12000000 0.80000000
0.08000000 0.08000000 0.80000000
0.08000000 0.04000000 0.80000000
0.12000000 0.16000000 0.80000000
0.12000000 0.12000000 0.80000000
0.12000000 0.08000000 0.80000000
0.12000000 0.04000000 0.80000000
0.16000000 0.16000000 0.80000000
0.16000000 0.12000000 0.80000000
0.16000000 0.08000000 0.80000000
0.16000000 0.04000000 0.80000000
0.04000000 0.16000000 0.76000000
0.04000000 0.12000000 0.76000000
0.04000000 0.08000000 0.76000000
0.04000000 0.04000000 0.76000000
0.08000000 0.16000000 0.76000000
0.08000000 0.12000000 0.76000000
0.08000000 0.08000000 0.76000000
0.08000000 0.04000000 0.76000000
0.12000000 0.16000000 0.76000000
0.12000000 0.12000000 0.76000000
0.12000000 0.08000000 0.76000000
0.12000000 0.04000000 0.76000000
0.16000000 0.16000000 0.76000000
0.16000000 0.12000000 0.76000000
0.16000000 0.08000000 0.76000000
0.16000000 0.04000000 0.76000000
0.04000000 0.16000000 0.72000000
0.04000000 0.12000000 0.72000000
0.04000000 0.08000000 0.72000000
0.04000000 0.04000000 0.72000000
0.08000000 0.16000000 0.72000000
0.08000000 0.12000000 0.72000000
0.08000000 0.08000000 0.72000000
0.08000000 0.04000000 0.72000000
0.12000000 0.16000000 0.72000000
0.12000000 0.12000000 0.72000000
0.12000000 0.08000000 0.72000000
0.12000000 0.04000000 0.72000000
0.16000000 0.16000000 0.72000000
0.16000000 0.12000000 0.72000000
0.16000000 0.08000000 0.72000000
0.16000000 0.04000000 0.72000000
0.04000000 0.16000000 0.68000000
0.04000000 0.12000000 0.68000000
0.04000000 0.08000000 0.68000000
0.04000000 0.04000000 0.68000000
0.08000000 0.16000000 0.68000000
0.08000000 0.12000000 0.68000000
0.08000000 0.08000000 0.68000000
0.08000000 0.04000000 0.68000000
0.12000000 0.16000000 0.68000000
0.12000000 0.12000000 0.68000000
0.12000000 0.08000000 0.68000000
0.12000000 0.04000000 0.68000000
0.16000000 0.16000000 0.68000000
0.16000000 0.12000000 0.68000000
0.16000000 0.08000000 0.68000000
0.16000000 0.04000000 0.68000000
0.04000000 0.16000000 0.64000000
0.04000000 0.12000000 0.64000000
0.04000000 0.08000000 0.64000000
0.04000000 0.04000000 0.64000000
0.08000000 0.16000000 0.64000000
0.08000000 0.12000000 0.64000000
0.08000000 0.08000000 0.64000000
0.08000000 0.04000000 0.64000000
0.12000000 0.16000000 0.64000000
0.12000000 0.12000000 0.64000000
0.12000000 0.08000000 0.64000000
0.12000000 0.04000000 0.64000000
0.16000000 0.16000000 0.64000000
0.16000000 0.12000000 0.64000000
0.16000000 0.08000000 0.64000000
0.16000000 0.04000000 0.64000000
0.04000000 0.16000000 0.60000000
0.04000000 0.12000000 0.60000000
0.04000000 0.08000000 0.60000000
0.04000000 0.04000000 0.60000000
0.08000000 0.16000000 0.60000000
0.08000000 0.12000000 0.60000000
0.08000000 0.08000000 0.60000000
0.08000000 0.04000000 0.60000000
0.12000000 0.16000000 0.60000000
0.12000000 0.12000000 0.60000000
0.12000000 0.08000000 0.60000000
0.12000000 0.04000000 0.60000000
0.16000000 0.16000000 0.60000000
0.16000000 0.12000000 0.60000000
0.16000000 0.08000000 0.60000000
0.16000000 0.04000000 0.60000000
0.04000000 0.16000000 0.56000000
0.04000000 0.12000000 0.56000000
0.04000000 0.08000000 0.56000000
0.04000000 0.04000000 0.56000000
0.08000000 0.16000000 0.56000000
0.08000000 0.12000000 0.56000000
0.08000000 0.08000000 0.56000000
0.08000000 0.04000000 0.56000000
0.12000000 0.16000000 0.56000000
0.12000000 0.12000000 0.56000000
0.12000000 0.08000000 0.56000000
0.12000000 0.04000000 0.56000000
0.16000000 0.16000000 0.56000000
0.16000000 0.12000000 0.56000000
0.16000000 0.08000000 0.56000000
0.16000000 0.04000000 0.56000000
0.04000000 0.16000000 0.52000000
0.04000000 0.12000000 0.52000000
0.04000000 0.08000000 0.52000000
0.04000000 0.04000000 0.52000000
0.08000000 0.16000000 0.52000000
0.08000000 0.12000000 0.52000000
0.08000000 0.08000000 0.52000000
0.08000000 0.04000000 0.52000000
0.12000000 0.16000000 0.52000000
0.12000000 0.12000000 0.52000000
0.12000000 0.08000000 0.52000000
0.12000000 0.04000000 0.52000000
0.16000000 0.16000000 0.52000000
0.16000000 0.12000000 0.52000000
0.16000000 0.08000000 0.52000000
0.16000000 0.04000000 0.52000000
0.04000000 0.16000000 0.48000000
0.04000000 0.12000000 0.48000000
0.04000000 0.08000000 0.48000000
0.04000000 0.04000000 0.48000000
0.08000000 0.16000000 0.48000000
0.08000000 0.12000000 0.48000000
0.08000000 0.08000000 0.48000000
0.08000000 0.04000000 0.48000000
0.12000000 0.16000000 0.48000000
0.12000000 0.12000000 0.48000000
0.12000000 0.08000000 0.48000000
0.12000000 0.04000000 0.48000000
0.16000000 0.16000000 0.48000000
0.16000000 0.12000000 0.48000000
0.16000000 0.08000000 0.48000000
0.16000000 0.04000000 0.48000000
0.04000000 0.16000000 0.44000000
0.04000000 0.12000000 0.44000000
0.04000000 0.08000000 0.44000000
0.04000000 0.04000000 0.44000000
0.08000000 0.16000000 0.44000000
0.08000000 0.12000000 0.44000000
0.08000000 0.08000000 0.44000000
0.08000000 0.04000000 0.44000000
0.12000000 0.16000000 0.44000000
0.12000000 0.12000000 0.44000000
0.12000000 0.08000000 0.44000000
0.12000000 0.04000000 0.44000000
0.16000000 0.16000000 0.44000000
0.16000000 0.12000000 0.44000000
0.16000000 0.08000000 0.44000000
0.16000000 0.04000000 0.44000000
0.04000000 0.16000000 0.40000000
0.04000000 0.12000000 0.40000000
0.04000000 0.08000000 0.40000000
0.04000000 0.04000000 0.40000000
0.08000000 0.16000000 0.40000000
0.08000000 0.12000000 0.40000000
0.08000000 0.08000000 0.40000000
0.08000000 0.04000000 0.40000000
0.12000000 0.16000000 0.40000000
0.12000000 0.12000000 0.40000000
0.12000000 0.08000000 0.40000000
0.12000000 0.04000000 0.40000000
0.16000000 0.16000000 0.40000000
0.16000000 0.12000000 0.40000000
0.16000000 0.08000000 0.40000000
0.16000000 0.04000000 0.40000000
0.04000000 0.16000000 0.36000000
0.04000000 0.12000000 0.36000000
0.04000000 0.08000000 0.36000000
0.04000000 0.04000000 0.36000000
0.08000000 0.16000000 0.36000000
0.08000000 0.12000000 0.36000000
0.08000000 0.08000000 0.36000000
0.08000000 0.04000000 0.36000000
0.12000000 0.16000000 0.36000000
0.12000000 0.12000000 0.36000000
0.12000000 0.08000000 0.36000000
0.12000000 0.04000000 0.36000000
0.16000000 0.16000000 0.36000000
0.16000000 0.12000000 0.36000000
0.16000000 0.08000000 0.36000000
0.16000000 0.04000000 0.36000000
0.04000000 0.16000000 0.32000000
0.04000000 0.12000000 0.32000000
0.04000000 0.08000000 0.32000000
0.04000000 0.04000000 0.32000000
0.08000000 0.16000000 0.32000000
0.08000000 0.12000000 0.32000000
0.08000000 0.08000000 0.32000000
0.08000000 0.04000000 0.32000000
0.12000000 0.16000000 0.32000000
0.12000000 0.12000000 0.32000000
0.12000000 0.08000000 0.32000000
0.12000000 0.04000000 0.32000000
0.16000000 0.16000000 0.32000000
0.16000000 0.12000000 0.32000000
0.16000000 0.08000000 0.32000000
0.16000000 0.04000000 0.32000000
0.04000000 0.16000000 0.28000000
0.04000000 0.12000000 0.28000000
0.04000000 0.08000000 0.28000000
0.04000000 0.04000000 0.28000000
0.08000000 0.16000000 0.28000000
0.08000000 0.12000000 0.28000000
0.08000000 0.08000000 0.28000000
0.08000000 0.04000000 0.28000000
0.12000000 0.16000000 0.28000000
0.12000000 0.12000000 0.28000000
0.12000000 0.08000000 0.28000000
0.12000000 0.04000000 0.28000000
0.16000000 0.16000000 0.28000000
0.16000000 0.12000000 0.28000000
0.16000000 0.08000000 0.28000000
0.16000000 0.04000000 0.28000000
0.04000000 0.16000000 0.24000000
0.04000000 0.12000000 0.24000000
0.04000000 0.08000000 0.24000000
0.04000000 0.04000000 0.24000000
0.08000000 0.16000000 0.24000000
0.08000000 0.12000000 0.24000000
0.08000000 0.08000000 0.24000000
0.08000000 0.04000000 0.24000000
0.12000000 0.16000000 0.24000000
0.12000000 0.12000000 0.24000000
0.12000000 0.08000000 0.24000000
0.12000000 0.04000000 0.24000000
[...]
CELL_DATA 625
SCALARS phi double 1
LOOKUP_TABLE default
0.50000000
0.50000000
0.50000000
0.50000000
0.50000000
0.83333333
0.83333333
0.83333333
0.83333333
0.83333333
0.94444445
0.94444445
0.94444445
0.94444445
0.94444445
0.98148148
0.98148148
0.98148148
0.98148148
0.98148148
0.99382716
0.99382716
0.99382716
0.99382716
0.99382716
0.99794239
0.99794239
0.99794239
0.99794239
0.99794239
0.99931413
0.99931413
0.99931413
0.99931413
0.99931413
0.99977138
0.99977138
0.99977138
0.99977138
0.99977138
0.99992379
0.99992379
0.99992379
0.99992379
0.99992379
0.99997460
0.99997460
0.99997460
0.99997460
0.99997460
0.99999153
0.99999153
0.99999153
0.99999153
0.99999153
0.99999718
0.99999718
0.99999718
0.99999718
0.99999718
0.99999906
0.99999906
0.99999906
0.99999906
0.99999906
0.99999969
0.99999969
0.99999969
0.99999969
0.99999969
0.99999990
0.99999990
0.99999990
0.99999990
0.99999990
0.99999997
0.99999997
0.99999997
0.99999997
0.99999997
0.99999999
0.99999999
0.99999999
0.99999999
0.99999999
1.00000000
1.00000000
1.00000000
1.00000000
1.00000000
1.00000000
1.00000000
1.00000000
1.00000000
1.00000000
1.00000000
1.00000000
1.00000000
1.00000000
1.00000000
1.00000000
1.00000000
1.00000000
1.00000000
1.00000000
1.00000000
1.00000000
1.00000000
1.00000000
1.00000000
1.00000000
1.00000000
1.00000000
1.00000000
1.00000000
1.00000000
1.00000000
1.00000000
1.00000000
1.00000000
1.00000000
1.00000000
1.00000000
1.00000000
1.00000000
0.50000000
0.50000000
0.50000000
0.50000000
0.50000000
0.83333333
0.83333333
0.83333333
0.83333333
0.83333333
0.94444445
0.94444445
0.94444445
0.94444445
0.94444445
0.98148148
0.98148148
0.98148148
0.98148148
0.98148148
0.99382716
0.99382716
0.99382716
0.99382716
0.99382716
0.99794239
0.99794239
0.99794239
0.99794239
0.99794239
0.99931413
0.99931413
0.99931413
0.99931413
0.99931413
0.99977138
0.99977138
0.99977138
0.99977138
0.99977138
0.99992379
0.99992379
0.99992379
0.99992379
0.99992379
0.99997460
0.99997460
0.99997460
0.99997460
0.99997460
0.99999153
0.99999153
0.99999153
0.99999153
0.99999153
0.99999718
0.99999718
0.99999718
0.99999718
0.99999718
0.99999906
0.99999906
0.99999906
0.99999906
0.99999906
0.99999969
0.99999969
0.99999969
0.99999969
0.99999969
0.99999990
0.99999990
0.99999990
0.99999990
0.99999990
0.99999997
0.99999997
0.99999997
0.99999997
0.99999997
0.99999999
0.99999999
0.99999999
0.99999999
0.99999999
1.00000000
1.00000000
1.00000000
1.00000000
1.00000000
1.00000000
1.00000000
1.00000000
1.00000000
1.00000000
1.00000000
1.00000000
1.00000000
1.00000000
1.00000000
1.00000000
1.00000000
1.00000000
1.00000000
1.00000000
1.00000000
1.00000000
1.00000000
1.00000000
1.00000000
1.00000000
1.00000000
1.00000000
1.00000000
1.00000000
1.00000000
1.00000000
1.00000000
1.00000000
1.00000000
1.00000000
1.00000000
1.00000000
1.00000000
1.00000000
0.50000000
0.50000000
0.50000000
0.50000000
0.50000000
0.83333333
0.83333333
0.83333333
0.83333333
0.83333333
0.94444445
0.94444445
0.94444445
0.94444445
0.94444445
0.98148148
0.98148148
0.98148148
0.98148148
0.98148148
0.99382716
0.99382716
0.99382716
0.99382716
0.99382716
0.99794239
0.99794239
0.99794239
0.99794239
0.99794239
0.99931413
0.99931413
0.99931413
0.99931413
0.99931413
0.99977138
0.99977138
0.99977138
0.99977138
0.99977138
0.99992379
0.99992379
0.99992379
0.99992379
0.99992379
0.99997460
0.99997460
0.99997460
0.99997460
0.99997460
0.99999153
0.99999153
0.99999153
0.99999153
0.99999153
0.99999718
0.99999718
0.99999718
0.99999718
0.99999718
0.99999906
0.99999906
0.99999906
0.99999906
0.99999906
0.99999969
0.99999969
0.99999969
0.99999969
0.99999969
0.99999990
0.99999990
0.99999990
0.99999990
0.99999990
0.99999997
0.99999997
0.99999997
0.99999997
0.99999997
0.99999999
0.99999999
0.99999999
0.99999999
0.99999999
1.00000000
1.00000000
1.00000000
1.00000000
1.00000000
1.00000000
1.00000000
1.00000000
1.00000000
1.00000000
1.00000000
1.00000000
1.00000000
1.00000000
1.00000000
1.00000000
1.00000000
1.00000000
1.00000000
1.00000000
1.00000000
1.00000000
1.00000000
1.00000000
1.00000000
1.00000000
1.00000000
1.00000000
1.00000000
1.00000000
1.00000000
1.00000000
1.00000000
1.00000000
1.00000000
1.00000000
1.00000000
1.00000000
1.00000000
1.00000000
0.50000000
0.50000000
0.50000000
0.50000000
0.50000000
0.83333333
0.83333333
0.83333333
0.83333333
0.83333333
0.94444445
0.94444445
0.94444445
0.94444445
0.94444445
0.98148148
0.98148148
0.98148148
0.98148148
0.98148148
0.99382716
0.99382716
0.99382716
0.99382716
0.99382716
0.99794239
0.99794239
0.99794239
0.99794239
0.99794239
0.99931413
0.99931413
0.99931413
0.99931413
0.99931413
0.99977138
0.99977138
0.99977138
0.99977138
0.99977138
0.99992379
0.99992379
0.99992379
0.99992379
0.99992379
0.99997460
0.99997460
0.99997460
0.99997460
0.99997460
0.99999153
0.99999153
0.99999153
0.99999153
0.99999153
0.99999718
0.99999718
0.99999718
0.99999718
0.99999718
0.99999906
0.99999906
0.99999906
0.99999906
0.99999906
0.99999969
0.99999969
0.99999969
0.99999969
0.99999969
0.99999990
0.99999990
0.99999990
0.99999990
0.99999990
0.99999997
0.99999997
0.99999997
0.99999997
0.99999997
0.99999999
0.99999999
0.99999999
0.99999999
0.99999999
1.00000000
1.00000000
1.00000000
1.00000000
1.00000000
1.00000000
1.00000000
1.00000000
1.00000000
1.00000000
1.00000000
1.00000000
1.00000000
1.00000000
1.00000000
1.00000000
1.00000000
1.00000000
1.00000000
1.00000000
1.00000000
1.00000000
1.00000000
1.00000000
1.00000000
1.00000000
1.00000000
1.00000000
1.00000000
1.00000000
1.00000000
1.00000000
1.00000000
1.00000000
1.00000000
1.00000000
1.00000000
1.00000000
1.00000000
1.00000000
0.50000000
0.50000000
0.50000000
0.50000000
0.50000000
0.83333333
0.83333333
0.83333333
0.83333333
0.83333333
0.94444445
0.94444445
0.94444445
0.94444445
0.94444445
0.98148148
0.98148148
0.98148148
0.98148148
0.98148148
0.99382716
0.99382716
0.99382716
0.99382716
0.99382716
0.99794239
0.99794239
0.99794239
0.99794239
0.99794239
0.99931413
0.99931413
0.99931413
0.99931413
0.99931413
0.99977138
0.99977138
0.99977138
0.99977138
0.99977138
0.99992379
0.99992379
0.99992379
0.99992379
0.99992379
0.99997460
0.99997460
0.99997460
0.99997460
0.99997460
0.99999153
0.99999153
0.99999153
0.99999153
0.99999153
0.99999718
0.99999718
0.99999718
0.99999718
0.99999718
0.99999906
0.99999906
0.99999906
0.99999906
0.99999906
0.99999969
0.99999969
0.99999969
0.99999969
0.99999969
0.99999990
0.99999990
0.99999990
0.99999990
0.99999990
0.99999997
0.99999997
0.99999997
0.99999997
0.99999997
0.99999999
0.99999999
0.99999999
0.99999999
0.99999999
1.00000000
1.00000000
1.00000000
1.00000000
1.00000000
1.00000000
1.00000000
1.00000000
1.00000000
1.00000000
1.00000000
1.00000000
1.00000000
1.00000000
1.00000000
1.00000000
1.00000000
1.00000000
1.00000000
1.00000000
1.00000000
1.00000000
1.00000000
1.00000000
1.00000000
1.00000000
1.00000000
1.00000000
1.00000000
1.00000000
1.00000000
1.00000000
1.00000000
1.00000000
1.00000000
1.00000000
1.00000000
1.00000000
1.00000000
1.00000000

