# vtk DataFile Version 4.2
Unstructured Grid Data
ASCII
DATASET UNSTRUCTURED_GRID
POINTS 24 double
0.00000000 0.00000000 1.00000000
0.00000000 0.00000000 0.80000000
0.00000000 0.00000000 0.60000000
0.00000000 0.00000000 0.40000000
0.00000000 0.00000000 0.20000000
0.00000000 0.00000000 0.00000000
0.20000000 0.00000000 1.00000000
0.20000000 0.00000000 0.80000000
0.20000000 0.00000000 0.60000000
0.20000000 0.00000000 0.40000000
0.20000000 0.00000000 0.20000000
0.20000000 0.00000000 0.00000000
0.20000000 0.20000000 0.20000000
0.20000000 0.20000000 0.40000000
0.20000000 0.20000000 0.60000000
0.20000000 0.20000000 0.80000000
0.20000000 0.20000000 0.00000000
0.20000000 0.20000000 1.00000000
0.00000000 0.20000000 0.20000000
0.00000000 0.20000000 0.40000000
0.00000000 0.20000000 0.60000000
0.00000000 0.20000000 0.80000000
0.00000000 0.20000000 0.00000000
0.00000000 0.20000000 1.00000000

CELLS 5 45
8 1 21 15 7 0 23 17 6
8 2 20 14 8 1 21 15 7
8 3 19 13 9 2 20 14 8
8 4 18 12 10 3 19 13 9
8 5 22 16 11 4 18 12 10
CELL_TYPES 5
12
12
12
12
12
CELL_DATA 5
SCALARS phi double 1
LOOKUP_TABLE default
-0.04639923
-0.18559691
-0.35959401
-0.57709038
-0.84896085

