# vtk DataFile Version 4.2
Unstructured Grid Data
ASCII
DATASET UNSTRUCTURED_GRID
POINTS 24 double
0.50000000 -0.05000000 -0.05000000
0.40000000 -0.05000000 -0.05000000
0.30000000 -0.05000000 -0.05000000
0.20000000 -0.05000000 -0.05000000
0.10000000 -0.05000000 -0.05000000
0.00000000 -0.05000000 -0.05000000
0.50000000 0.05000000 -0.05000000
0.40000000 0.05000000 -0.05000000
0.30000000 0.05000000 -0.05000000
0.20000000 0.05000000 -0.05000000
0.10000000 0.05000000 -0.05000000
0.00000000 0.05000000 -0.05000000
0.10000000 0.05000000 0.05000000
0.20000000 0.05000000 0.05000000
0.30000000 0.05000000 0.05000000
0.40000000 0.05000000 0.05000000
0.00000000 0.05000000 0.05000000
0.50000000 0.05000000 0.05000000
0.10000000 -0.05000000 0.05000000
0.20000000 -0.05000000 0.05000000
0.30000000 -0.05000000 0.05000000
0.40000000 -0.05000000 0.05000000
0.00000000 -0.05000000 0.05000000
0.50000000 -0.05000000 0.05000000

CELLS 5 45
8 1 7 6 0 21 15 17 23
8 2 8 7 1 20 14 15 21
8 3 9 8 2 19 13 14 20
8 4 10 9 3 18 12 13 19
8 5 11 10 4 22 16 12 18
CELL_TYPES 5
12
12
12
12
12
CELL_DATA 5
SCALARS Temperature double 1
LOOKUP_TABLE default
460.00000000
380.00000000
300.00000000
220.00000000
140.00000000

